; NPT Equilibration — C-rescale barostat (GROMACS 2021+)
; Semiisotropic coupling: surface XY fixed, Z flexible
; Reference file: rendered at runtime via templates.render_npt()

integrator      = md
nsteps          = 50000         ; 100 ps at dt=0.002
dt              = 0.002

nstxout-compressed  = 500
nstlog              = 500
nstcalcenergy       = 100
nstenergy           = 500

cutoff-scheme   = Verlet
nstlist         = 20
pbc             = xyz

rcoulomb        = 1.2
rvdw            = 1.2
rvdw-switch     = 1.0
rlist           = 1.2

coulombtype     = PME
pme-order       = 4
fourierspacing  = 0.16

DispCorr        = EnerPres

tcoupl          = V-rescale
tc-grps         = System
tau_t           = 0.1
ref_t           = 300

; C-rescale: modern replacement for Berendsen (GROMACS 2021+), correct NPT ensemble
; Semiisotropic: compressibility=0 in XY freezes the surface lattice, Z is free
pcoupl          = C-rescale
pcoupltype      = semiisotropic
tau_p           = 2.0
ref_p           = 1.0   1.0     ; bar (xy, z)
compressibility = 0     4.5e-5  ; xy rigid (surface lattice), z flexible
refcoord-scaling = com

constraints             = h-bonds
constraint-algorithm    = lincs
lincs-iter              = 1
lincs-order             = 4

gen_vel         = no            ; continue velocities from NVT

comm-mode       = Linear
nstcomm         = 100
